$orca_hessian_file

$hessian
129
                    0                  1                  2                  3                  4
    0      5.1524261070E-01   4.6653312715E-02  -5.7509894263E-03  -1.1101384457E-01   8.4366018466E-02
    1      4.6414081513E-02   5.0167246943E-01   1.4888815556E-01   6.9436749275E-02  -2.1013320484E-01
    2     -5.8177781976E-03   1.4811802217E-01   1.9290489490E-01   3.4470543097E-02  -6.9420780635E-02
    3     -1.1325738685E-01   7.3801864387E-02   3.9388581171E-02   3.1107230387E-01  -3.2300018668E-02
    4      8.6298163233E-02  -2.1667083751E-01  -7.4389243084E-02  -3.0042380625E-02   4.1602924231E-01
    5      3.8360308739E-02  -6.6516891634E-02  -7.1544245101E-02  -5.8457632015E-02   9.1741611052E-02
    6     -1.1008169096E-01  -7.3168207389E-02  -2.6122079676E-02   1.0598946520E-02   1.1413357654E-02
    7     -6.4649035535E-02  -1.5134353859E-01  -3.8333586876E-02  -8.9142370879E-03  -2.3729179549E-02
    8     -2.3682745936E-02  -3.9738899472E-02  -6.8315519451E-02  -4.4725289238E-03  -1.2798030550E-02
    9     -2.8154452328E-01   3.4709310599E-03   1.4323243542E-02  -4.2840189944E-02   4.6439687023E-02
   10     -1.3179124998E-02  -6.5067560651E-02  -1.1907955583E-02   1.8129917425E-02  -4.6136005322E-04
   11      9.5153025786E-03  -1.0326027221E-02  -4.9669437664E-02   1.1494060227E-02  -1.3403339506E-02
   12     -3.1629657540E-02  -2.7878477728E-02  -1.2274887565E-02  -4.3590427014E-02  -1.3768506197E-02
   13     -5.0248727149E-02  -5.7556603870E-03  -5.0787843896E-05  -1.0678788047E-02  -1.7632589463E-02
   14     -1.8698561016E-02  -3.6292194187E-03   2.4696579183E-03   9.9004810181E-03  -5.9665422043E-03
   15      2.2318335613E-02  -2.1468587611E-02  -1.1556757128E-02  -1.1674275028E-01  -3.8775364594E-02
   16      2.6634997954E-04  -5.7100343823E-02  -1.6248494624E-02  -2.5919356172E-02  -1.0070067317E-01
   17     -1.2784313496E-03  -1.4234662206E-02  -1.5979743863E-03   6.0603232788E-03   6.0492007363E-03
   18      7.9985929625E-04   3.4663139196E-04  -2.4051533723E-03   1.5268803804E-04  -6.8831093753E-04
   19      5.8798377476E-03  -2.4453770234E-03  -5.0211060638E-03   5.2183012771E-05   2.6593402495E-03
   20      2.5529045155E-03  -1.0336431311E-03  -1.2860961274E-03   7.3547619868E-04   1.9303941361E-03
   21     -1.0220543873E-03   9.4979153151E-04   6.1824378179E-04  -3.6768726958E-03  -1.0941617258E-03
   22      4.8125278915E-03  -6.2840533855E-03  -1.4945560507E-03   5.3820862671E-03   3.0481798856E-03
   23      9.8740595582E-04  -1.8770823848E-03  -4.1674409891E-04  -2.3524099960E-03  -2.1818852809E-04
   24     -8.2436691009E-03   7.9107808166E-04   1.3831572369E-04  -6.9185685926E-04  -2.8623159020E-02
   25     -2.4204464366E-03  -2.7697053506E-04  -3.8639820897E-04  -6.0574438937E-03  -2.8917356805E-02
   26     -6.6431584327E-04   3.4059716679E-04  -5.3717359924E-05  -3.4913827551E-03  -4.7807192386E-03
   27     -5.9851769606E-03   2.1070229773E-03   3.8133312728E-03  -3.9100463991E-03  -3.0348275566E-02
   28     -3.3659393164E-03   7.0170856635E-04   4.6179683447E-03  -1.2086025613E-02  -3.3080141054E-02
   29     -2.8358745216E-04  -4.1734080795E-04   1.5953100356E-03   5.1662312190E-03   6.3163424077E-03
   30      1.2355440426E-02  -2.7210899081E-03  -3.8553224755E-03  -2.0134227665E-03  -5.2409955988E-03
   31      4.0216329113E-03  -1.6206744785E-02  -1.3290269667E-02  -2.3402026174E-03  -2.9047050319E-04
   32      1.8734524167E-03  -9.3663756848E-03  -4.2753655646E-03  -9.7114342951E-04   5.9993271936E-05
   33     -8.1506679639E-03   3.9055029796E-03   3.8871153210E-03   9.4457526601E-04  -2.7451410298E-06
   34     -1.5776280781E-02   4.4565611578E-03   4.7666308163E-03   1.6609445156E-03   8.3560018182E-04
   35     -7.2097244900E-03   4.5613275344E-04   3.2953788007E-03   5.1929694812E-04   6.8999131264E-04
   36     -9.2939240764E-04   9.5394766717E-04   6.6573146515E-04   8.2925175857E-05  -7.4228990994E-04
   37      1.9168730702E-04  -1.6862594812E-04  -4.0351901342E-05   2.5020581448E-04   7.4827412690E-04
   38     -1.0426695853E-03   5.0465002392E-04   3.8912496832E-04  -2.5497993948E-04  -8.7179499274E-04
   39      1.2492753560E-03  -1.8739532583E-04  -7.0653884008E-05  -2.1731344624E-05   7.7098099053E-04
   40      5.4823465156E-04   2.1949947989E-05   1.4045768285E-04  -9.8779699550E-05   2.5543890073E-04
   41      3.4616794836E-03  -6.3181694315E-04  -1.5751024048E-03  -1.8743556696E-04   1.3410346403E-03
   42      2.1609685335E-05  -5.7246121639E-04  -1.1668877542E-04   1.5625567021E-04   3.9635969451E-04
   43     -5.9075139246E-04   9.4736446858E-04   2.4553149959E-04   2.2559667608E-04  -3.6619671561E-04
   44     -3.1976445732E-05  -6.3273475046E-04  -1.4309323939E-03  -4.4195773575E-04  -4.3761197215E-04
   45      2.1755010150E-03  -1.5993401152E-03  -3.6188168115E-04   1.1110283948E-04   1.2262364694E-03
   46      1.5125204246E-03  -8.2375346052E-04  -9.5446805736E-05  -3.2808335544E-04   7.9361772458E-04
   47     -2.2299903449E-04   6.0650494759E-04   2.1326488561E-04  -2.2458284502E-04   3.6922332145E-05
   48     -1.2722242534E-03   1.2903928861E-03   4.7288672088E-04  -1.8263895196E-03  -1.3933610797E-03
   49     -4.6085142749E-04   3.2513754465E-04   1.7475870353E-04  -1.0123660397E-03  -6.5931487367E-05
   50      9.2990681503E-05  -4.3414461499E-04  -2.2839553564E-04   1.3050733350E-03   1.2375568470E-04
   51      4.0412137384E-05  -2.0834408362E-04   1.7376186104E-04   1.8165659270E-06   3.2954698812E-04
   52     -8.4470243065E-04   3.1668854229E-04   3.9090822059E-04   5.5513152881E-05  -6.6199440596E-04
   53     -5.8792345191E-06   1.8745459752E-04  -1.5631911681E-04   1.6887300238E-04  -2.4000931588E-04
   54      7.3408086580E-04  -4.0431161769E-04  -2.2511738417E-04   3.4092877795E-05   6.6067258821E-04
   55      2.6087618834E-04  -9.1065151437E-05  -2.1792091236E-04   5.3938300007E-04   2.0874210837E-03
   56      1.1062602936E-04  -5.1720035947E-05  -3.4487737783E-04   2.0698672574E-04   7.0579625882E-04
   57      1.0932753907E-04   3.1373654516E-04   2.9780683808E-05   1.6389936177E-03   1.0370196223E-03
   58     -2.5498324340E-03   1.2140711984E-03   2.0519352167E-04   8.4823900766E-04  -4.4198243763E-03
   59     -1.7887019774E-03   4.6525888510E-04   1.4830540793E-04   5.2939160333E-04  -5.8756158414E-03
   60     -3.7838556130E-04   7.3941653322E-05   2.4090779172E-05   1.3926765370E-03  -2.5754437998E-04
   61      1.4978850153E-03  -3.5791304080E-04  -1.8879375000E-04  -3.8922297945E-04   2.3724946890E-03
   62      1.0167584009E-03   4.8527345405E-05  -9.5550327564E-05  -4.1814587746E-04   2.1513697580E-03
   63     -3.6447188062E-04   8.1279923109E-05   5.9770901711E-05   1.5158083292E-03  -3.8350060125E-04
   64      1.4952232855E-03  -3.1552657895E-04  -6.4592664576E-04  -5.4574215543E-04   2.1314467980E-03
   65     -5.0947049569E-04   3.4748899206E-04   1.1887943108E-04   4.0362810309E-04  -2.5047892211E-03
   66     -3.4414847093E-04   5.8896264811E-04   3.1455943017E-04   1.6412754258E-03   1.6251389839E-04
   67     -1.9085310457E-03   1.8015235410E-03   1.1176426119E-03  -3.3344604970E-05  -4.2018655661E-03
   68      2.0075624533E-03  -1.2443765358E-03  -1.8125610194E-03   6.5188323246E-04   7.4724673507E-03
   69      1.1338318651E-03  -2.3577361127E-04   1.4113496147E-04  -3.5924982821E-04   5.7350065447E-04
   70     -2.8003135315E-04  -6.4639155125E-04   3.6455274531E-04   8.7127492374E-04   2.3370178309E-03
   71      8.2339591644E-04   8.9380604301E-04  -9.5315083952E-04  -9.7119152883E-04  -5.4512817278E-04
   72     -9.6808551123E-04   1.4248104539E-04   2.6250071523E-03   3.5623148925E-04   3.3896412728E-04
   73      1.9586722703E-03   2.7587637554E-03  -5.4511017230E-03  -5.7856249478E-04  -1.2433198483E-03
   74      3.9762963185E-03  -4.7518112169E-03   6.4190646866E-03  -9.3431151609E-04  -1.1387747969E-03
   75     -9.8152738569E-04  -4.2365110650E-04  -1.5371518589E-03   2.1724791016E-04   3.6303254792E-04
   76      3.2701486237E-03  -1.4039775214E-03   2.3005527048E-03  -4.3730563377E-04  -8.3297641609E-08
   77     -4.8187496812E-05   2.4188095336E-03  -4.4537814593E-03  -2.1898527128E-04   3.1866159735E-04
   78     -1.7431230250E-03   1.9531804334E-03   5.6818049998E-05   5.5679217882E-04  -1.1596664700E-03
   79     -2.1626215335E-03   2.4165022601E-03  -2.8677835932E-03   3.8761282046E-04  -9.1461912097E-04
   80      1.9130361888E-03  -5.9353234125E-03   1.3859272173E-03  -4.4117569600E-04   2.6699430667E-03
   81     -6.0872783914E-05   1.0418131196E-03  -1.1246931046E-03  -2.2892471184E-04  -5.2296120303E-04
   82      1.6016710515E-03   5.9927596737E-04   1.1660795711E-03  -4.5651664611E-04  -1.1545081397E-04
   83     -2.7957448813E-03   7.6212922507E-04  -1.5488295346E-03   4.4250545093E-04  -6.3842654333E-04
   84      2.1809655177E-03  -5.6572400508E-03   1.6634835230E-03  -7.7086430993E-04   2.6943283773E-03
   85     -6.9755576202E-04  -6.1270550861E-04   4.9396596226E-04   1.9666741507E-04   5.3598618677E-04
   86     -1.1930466393E-03   4.4336518244E-03  -1.4856031137E-03   4.8958973831E-04  -2.1999718059E-03
   87      5.0250400918E-04   1.2030658614E-03  -3.5679915577E-04  -1.6593002246E-04  -4.2076267322E-04
   88      2.4438775879E-03   1.2860471935E-03   2.0293656437E-03  -2.1648758021E-04  -8.6031501016E-04
   89      1.3102251133E-03   1.6740611110E-03   1.8233986769E-03  -1.3497886359E-04  -8.5748512031E-04
   90     -6.5996512913E-05   1.1591487558E-03  -5.7904837826E-05  -2.0934202331E-05  -5.4419976844E-04
   91      1.0838731280E-03  -3.6732451976E-04   2.9621147763E-04  -5.1139100052E-04   1.2563017055E-04
   92      4.7160377595E-04  -3.6765605789E-04   5.5835170162E-04  -1.0402628424E-04   3.2761795134E-04
   93     -2.1788189033E-05   1.0436153638E-04   6.7783755294E-04   1.2431043306E-04   1.7956262426E-04
   94     -3.6597667923E-05  -1.7572606003E-04  -1.2852637459E-04  -1.9337229504E-06  -7.7422269846E-06
   95     -1.9617382722E-04   2.0222841566E-05  -2.7921067965E-04   5.5309047775E-05  -1.4900168869E-04
   96     -3.7444326825E-04   5.3904288877E-04  -2.3556834954E-04   1.7979964323E-04  -2.7773438377E-04
   97      4.5439085585E-06  -3.9680443923E-04  -2.7402071419E-04  -5.0512923286E-05   1.6151310854E-04
   98      1.4798451434E-04  -6.2057364938E-04  -8.2924836138E-05  -6.5990950135E-05   2.7486092240E-04
   99     -1.1693808868E-04  -1.0926583378E-03  -2.5594947195E-04  -2.8859678685E-06   5.0645549269E-04
  100     -9.3702755200E-05   5.9629085595E-05   1.4483035013E-05   4.1968536503E-05  -3.2526790985E-05
  101     -2.0507508843E-04   5.7756693652E-04   8.9422780265E-05   8.8673593607E-05  -2.6979309653E-04
  102     -7.4034848370E-04   1.4760001962E-03  -2.1302918180E-04   2.9407221732E-04  -6.8430345274E-04
  103     -1.9820866536E-04   1.1394371003E-03  -4.2982390460E-05   1.0791076239E-04  -4.9047052568E-04
  104      1.0428824756E-04  -6.4379626744E-04   1.2938566837E-05   1.8180159925E-05   3.6170940868E-04
  105     -3.2831202357E-04  -7.2030792963E-04  -2.0524670043E-04  -8.1007868716E-06   3.8094560749E-04
  106     -6.7847543799E-04  -1.0815517601E-03  -9.2997058279E-04   1.5878996055E-04   5.5811591040E-04
  107     -7.9185998031E-04  -7.9300751438E-04  -5.5669862426E-04   4.0047881893E-05   4.3251553181E-04
  108     -5.6898150398E-04  -5.3859680163E-04  -7.8563749067E-05   9.7183960090E-05   2.2752121226E-04
  109     -2.0951658754E-04   1.0975251261E-04  -5.9741772528E-04   2.1667513010E-06  -6.4450695242E-05
  110     -4.7023676945E-04  -7.2088805203E-04  -5.5547216215E-04   8.0056471034E-05   4.0164846408E-04
  111     -5.4798285065E-04  -4.6629684100E-05   1.5301082279E-04   1.4417606689E-04  -8.4457468420E-05
  112      4.0988001489E-04  -6.4546076801E-06  -8.2203664664E-05  -1.1216444181E-04   1.2687222303E-04
  113     -1.9298256701E-04   6.3228497681E-05  -4.0059286993E-05   1.9856027189E-05  -8.9701736822E-05
  114      3.9622015088E-05  -5.1632899430E-04  -3.1325345315E-04  -8.5664567436E-05   1.6365669841E-04
  115     -2.4242913356E-04  -1.4211224621E-04  -2.0790185881E-04   1.2225296009E-04  -7.8202299356E-05
  116     -1.4499034088E-04  -2.6009206219E-04  -3.8040565508E-04  -3.0008985149E-05  -2.0514129588E-05
  117      3.9725178259E-05   1.0658972608E-04   4.9024148351E-06  -2.6682863064E-05  -7.1675025276E-05
  118     -1.0788637453E-05  -9.0916288633E-05   3.2570132686E-05   5.3638901303E-06   6.4144974669E-05
  119      6.7002747076E-05  -2.7371921272E-04  -3.1709677167E-05  -7.0773334355E-05   1.5700876344E-04
  120      7.2459235726E-06   5.5744406604E-05  -4.1734605303E-05  -5.3465915660E-06  -5.0150533069E-05
  121     -6.3378537686E-05  -4.1845183245E-05  -3.7322284840E-05   3.3234309485E-05   8.3204193405E-06
  122      3.1116534431E-05  -1.0107701523E-04   4.9698511781E-06  -2.9719261830E-05   5.6070999157E-05
  123     -2.0101061147E-05   6.8227378950E-05  -6.3261596156E-05  -8.0097273530E-07  -4.3591569596E-05
  124     -3.2426705395E-05   1.6391590588E-05  -7.3530782616E-05   1.0693500184E-05  -1.4311425445E-05
  125      6.5106197074E-05   3.6207779252E-05   4.0710806030E-05  -2.6661346004E-05  -1.8513687684E-05
  126      5.6174914912E-05  -4.3092577353E-05  -1.8225296878E-05  -2.8778983090E-05   2.9587636517E-05
  127     -2.0129192628E-04  -4.6944334264E-04  -2.5097550495E-04   4.1112479459E-05   2.4129915507E-04
  128      9.5048262340E-05   8.5090347464E-05  -7.8623023143E-06  -4.4749944985E-05  -6.4740620463E-05
                    5                  6                  7                  8                  9
    0      3.6682798255E-02  -1.1097971773E-01  -6.4688395669E-02  -2.3226893949E-02  -2.7258311416E-01
    1     -6.6044122827E-02  -7.2629913186E-02  -1.5043790494E-01  -3.9688896359E-02   1.6682215211E-03
    2     -7.2031288823E-02  -2.5401629273E-02  -3.8401688012E-02  -6.7897439468E-02   1.6603369732E-02
    3     -6.1317073056E-02   1.0599979265E-02  -9.0133144151E-03  -4.4303985368E-03  -4.2706049740E-02
    4      9.5576301622E-02   1.1363613107E-02  -2.3727487358E-02  -1.2737763518E-02   4.6507149201E-02
    5      1.2104238384E-01   2.6881285107E-03  -1.1535160360E-02   1.7173308548E-03   2.1380753988E-02
    6      2.6999174644E-03   5.9021905888E-01  -3.6003768839E-02  -1.2894731377E-01  -1.4898825701E-02
    7     -1.1506155921E-02  -3.6765800697E-02   5.3229288371E-01   2.6615650076E-01  -9.7972567933E-03
    8      1.7031762870E-03  -1.3091179333E-01   2.6663512828E-01   2.8769459478E-01  -4.1244391773E-03
    9      2.1350615200E-02  -1.4940904639E-02  -9.8352782496E-03  -4.1251065643E-03   4.4751668235E-01
   10     -7.1174496201E-03  -2.2058900919E-02  -2.9080201868E-04  -9.8305067398E-04   3.1491253610E-02
   11      1.5790828256E-02  -9.8799599699E-03  -1.9223938108E-03   5.4784586761E-03  -1.0963126315E-03
   12     -3.6302892536E-03  -2.2053776073E-03   2.0083887705E-03   1.5425206481E-03  -7.6440457947E-02
   13     -1.1696477289E-02   3.0268204950E-03   2.7391204597E-03   2.6964348179E-04  -1.3465470726E-02
   14     -2.4559660468E-03   2.1215554958E-03  -1.2374755182E-05   3.2672057712E-03  -8.4929156602E-03
   15      2.2243101788E-03  -1.7947757940E-03   3.7427205393E-03   2.2850736362E-03  -1.6725896104E-02
   16      1.6708757376E-03   1.4988370815E-03   3.2081299287E-03  -2.2196274320E-04  -1.9861387966E-03
   17     -6.6294040166E-02   1.7405434426E-03  -2.7680245208E-03   3.1615583235E-03   5.8466230677E-03
   18      8.0421323816E-04  -9.4852975626E-05  -2.4291158459E-04   2.9094985609E-04  -5.6611888890E-03
   19      1.0669616844E-03  -5.2072420679E-04  -3.8983924852E-04   6.9713056244E-04  -2.0564978534E-02
   20      2.9990333480E-04  -1.4878219085E-04  -2.2589249569E-04   9.9029971124E-05  -1.3801809295E-02
   21      1.5665133053E-04  -1.3400958598E-04  -2.4592942533E-04  -1.6858474136E-04  -1.0688917527E-02
   22      1.6464520134E-03  -1.1515076358E-03   3.9510684047E-04  -3.4992064382E-04  -3.7007336754E-02
   23      1.0347604174E-04  -5.8372744059E-04   1.1713604368E-04  -2.2602681229E-04  -1.5556830525E-02
   24     -2.2339577182E-02   1.1193738116E-03  -8.3525836779E-04   2.5360748888E-04   2.3039411644E-04
   25     -2.2155158890E-02   4.9806924319E-04  -9.0270759382E-04   7.1934296096E-05   9.9163942556E-04
   26      1.2668984791E-03  -1.4552079652E-04   7.5231627291E-05  -5.6995786982E-06  -5.0265992420E-04
   27      2.0644058705E-02   4.7943999906E-04  -1.4307180944E-05  -8.5873479536E-04   2.5667950663E-03
   28      2.3095668384E-02   1.7337187245E-04   1.0416442496E-04  -8.5374042600E-04   7.3256063373E-04
   29     -1.7762454740E-04   5.6821050651E-05   3.1951366018E-04  -3.0782496761E-04  -3.8759245493E-04
   30     -1.5278505239E-03  -1.7017264713E-01   1.1530950861E-01   1.0057257048E-01  -3.7965090714E-03
   31      4.1733569473E-04   1.2588198683E-01  -3.0600115084E-01  -1.9504888161E-01   2.9923086156E-03
   32      1.5466904399E-03   1.0855308938E-01  -1.9590852360E-01  -1.8866409694E-01   2.0427115616E-03
   33     -3.9059214245E-04  -3.0565988322E-01  -1.3156717505E-02   4.9441049780E-02  -6.5664555809E-04
   34      9.7587019685E-05  -2.1194847940E-02  -4.6579992160E-02  -1.8551163112E-03  -1.8791234448E-03
   35     -5.6567687694E-04   4.4382577739E-02  -2.8848896294E-03  -4.5383739963E-02  -8.2094086456E-04
   36     -4.6938019355E-04   5.2293565048E-05  -1.1250234608E-04  -2.1100031408E-05   1.4389994279E-03
   37      1.5143630202E-04  -4.0981740199E-06   4.2240519179E-05  -7.4187814161E-06  -1.3302575120E-03
   38      2.0305807592E-05   7.1555165802E-05   2.8754105156E-05  -1.2303216828E-05   2.6377470547E-03
   39     -1.1545070370E-05  -9.4762443874E-05  -5.3108513676E-05   6.1349032216E-05  -3.7594211437E-04
   40      4.3366726320E-05  -1.1334847030E-05  -2.1603662224E-06  -5.8587204847E-05   3.1444155778E-04
   41      7.9487760139E-04  -3.1959625590E-04  -2.3583422927E-04   1.6388450820E-04  -5.8385651749E-03
   42      4.3437370937E-04   9.4801225854E-06   1.0107906878E-04   3.0849473212E-05   8.8409411008E-04
   43     -6.6757334512E-04   7.5894454629E-05  -8.9941316780E-05  -3.3337998378E-06   1.3808678618E-03
   44      9.2976344246E-04  -9.7579895423E-05   6.1843729569E-05   1.2057784273E-04  -2.5667761995E-04
   45      4.1910443468E-04  -3.8320212363E-04   9.0713871935E-05  -1.0070032833E-04  -6.0716045680E-03
   46      2.1420960563E-04  -2.6114399161E-04   3.2598261528E-05  -3.1710275823E-05  -3.9653126973E-03
   47     -2.1914348178E-04   1.4939016082E-04  -4.5931468340E-05   3.2711568946E-05   3.5903740593E-03
   48     -4.5684640002E-04   1.3031083441E-04  -1.2399197208E-04  -1.4886286368E-05   3.3146091690E-03
   49     -2.2923446914E-04   6.8885202863E-05   1.0360866297E-05   3.5628255254E-05   1.0319850656E-03
   50      3.9458790714E-04  -1.9931393883E-05   4.7922479427E-05  -2.9480484227E-06  -1.4430767235E-03
   51     -2.6474005416E-04  -7.7583329580E-06   6.5007005235E-05   4.0585624667E-05   1.6512675882E-03
   52     -3.6339013102E-05   7.1561376435E-05   9.9837600459E-06  -4.2054697011E-05   1.5789855851E-03
   53      4.3226988163E-04   3.5473243833E-05  -3.8768184727E-05  -4.6353000767E-05  -2.5695902810E-04
   54     -2.8044263752E-04  -6.1017669316E-05   2.9562641363E-05   7.2246028491E-05  -6.0096749554E-04
   55      1.6248835514E-03  -2.6522748596E-05   6.2076702488E-05   2.0785253082E-05  -9.5019390146E-05
   56      2.7848512519E-03  -9.2558314540E-07   1.4776482990E-05  -1.8387340606E-05   7.1556584163E-05
   57      7.4257768170E-04  -2.8636730022E-05  -1.4633161972E-05  -3.7932313606E-05   2.1410757444E-04
   58     -4.8782219221E-03   3.7640090773E-04  -3.5777859602E-04   1.6276320398E-05   1.2856592907E-03
   59     -3.8619388452E-03   3.3016015986E-04  -3.2166614396E-04  -1.5148503860E-05   5.0275172479E-04
   60      1.1180342406E-04   4.9452948623E-05   4.8300323603E-05   1.2369456196E-05   3.8099876426E-04
   61      1.2653355864E-03  -1.0304308906E-04   5.5325226852E-05  -1.2122512247E-05  -3.1923803454E-04
   62      1.0334006497E-03  -9.4666003007E-05   3.9508924017E-05  -3.2164611350E-05   4.0132846962E-04
   63      2.0977816240E-04   3.4133331319E-05  -2.5770516808E-07   3.1884985424E-05   5.4687647628E-04
   64     -7.2719541709E-04  -9.5495271092E-05   3.8442597007E-05   1.0629047337E-05  -6.4478728251E-04
   65      9.9282096146E-04   1.7873935268E-05  -4.5924432087E-05  -5.3883896296E-05   5.3606157629E-04
   66     -3.1636320169E-04  -9.9037636464E-06  -9.2064741705E-05   1.5138076134E-06   2.8339309249E-04
   67      3.7586163040E-03   2.0818166197E-04  -1.1572032098E-04  -2.2622804756E-04   1.2941026811E-03
   68     -3.4797947520E-03  -1.5052151323E-04   5.6703171790E-05   4.0788343984E-04  -1.0114041640E-03
   69      6.4423200078E-04  -1.3558660930E-04   1.5366800529E-04  -2.9381344665E-05  -5.0489349729E-04
   70     -2.8986894713E-04   1.9342405394E-05   4.4857347085E-05   4.8571451294E-05   1.0040890714E-04
   71      2.9112442552E-03  -5.1271214682E-05  -8.8700122751E-05   6.9643053913E-05  -6.0879156633E-06
   72     -1.7133417663E-04   1.0756235418E-02   1.1287455710E-02   7.2722625431E-03   3.4367079634E-04
   73      2.5113440974E-04  -1.2080989591E-02  -1.2046505290E-02  -1.1527318150E-02  -5.1764358118E-04
   74     -1.0715985013E-03  -9.1224748610E-03  -1.5123233359E-02   2.5972351819E-03  -1.3336535955E-04
   75      1.4691909766E-04  -8.7038762872E-03   4.7497910228E-04   2.7219466304E-03   4.4453774097E-04
   76     -2.5476503117E-04   2.2505968533E-02   2.8101532644E-03  -4.6694993795E-03  -2.5245420476E-04
   77      5.2284386002E-04   1.8090666960E-02   6.5737272295E-04  -1.2512694367E-03  -1.6658592175E-04
   78     -7.4832512456E-04  -2.3458448020E-05  -6.4229551235E-04  -8.3341392119E-04   3.3841200792E-04
   79      1.8191242008E-04   2.0291618610E-04   8.9240348395E-04   2.9737429991E-03  -8.8417221186E-05
   80      1.0585623328E-03   7.5884915197E-04   5.0398835409E-04  -8.0082279997E-04   6.7269471564E-04
   81      1.4434591509E-04  -9.7988781187E-05  -6.4275541038E-05   4.1873896756E-04  -7.7563936144E-04
   82     -3.3493811166E-04  -1.7911870250E-04  -4.0070022835E-04  -3.7084432500E-04  -7.8053131524E-04
   83     -4.0709730699E-05   2.1702224873E-04   4.2581687533E-04   6.9606017256E-04   7.9976735414E-04
   84      1.2604217944E-03   8.4230180081E-04   7.3998717608E-04  -1.0342632900E-04   3.4926057465E-04
   85     -1.4855521658E-04   2.4266388788E-04   9.7609659664E-05   3.0160878025E-05   4.5779232059E-04
   86     -9.1161162654E-04  -8.0025460152E-04  -3.1415873328E-04  -1.2693905695E-04  -3.3391363726E-04
   87     -5.0748428758E-05  -6.5052667212E-05  -5.2371268462E-04  -5.2199114731E-04  -7.2692917267E-04
   88     -8.0282132815E-04   9.2723828541E-05  -2.5058687383E-03  -1.1847541118E-03  -9.8118453677E-04
   89     -7.6373607220E-04  -2.6328280639E-04  -2.1049000802E-03  -2.1031161219E-03  -7.8437513535E-04
   90     -4.2599231690E-04  -1.5995004468E-04  -2.1502794851E-04  -2.0609424975E-04  -1.8599606195E-04
   91      1.0886175747E-04   1.1391202455E-04   6.6240014291E-05   2.8534376816E-04  -4.9633642783E-04
   92     -2.0313233362E-04   1.1674714603E-04  -8.0684921055E-05   1.7329943390E-04  -8.7490435302E-05
   93     -3.7142065909E-04   1.0918899152E-04  -2.0529664206E-04  -4.7829759533E-05   6.3451209362E-05
   94      1.3563184561E-04   6.2325847516E-05  -1.1388850777E-05   4.1262512667E-05   4.5402146416E-05
   95      1.2485030821E-04  -4.3803587726E-05   6.3787610713E-05  -5.4697366238E-07   9.9074610306E-05
   96     -7.7380715615E-05  -1.6448137376E-04  -7.4357045941E-05   4.7537694287E-05   8.4302235568E-05
   97      2.2270681501E-04   4.4541750208E-06   1.7656683438E-04  -1.3516699934E-04   5.0926029255E-05
   98      2.4155637284E-04   7.3312392417E-05   1.5322858668E-04  -8.9306601315E-06   6.8454414037E-05
   99      3.6808123984E-04   1.3950625646E-06   3.3206976628E-04  -2.1985318486E-04   2.7578626422E-04
  100     -3.3160974734E-05   3.7881693276E-06  -2.1256358409E-05   6.5009980710E-05   4.0833292956E-05
  101     -2.1848230763E-04  -4.9594188615E-06  -1.3718068864E-04   1.3831711329E-04  -2.4657785874E-05
  102     -4.4004067101E-04  -1.9987483298E-04  -3.2447027614E-04  -5.0204583258E-05   2.5404706720E-05
  103     -2.9029000768E-04  -2.3182797419E-04  -3.3132776237E-04  -9.4998068412E-06  -2.1055879551E-04
  104      1.4679900068E-04  -1.6372223881E-04   2.1758703944E-04  -2.0520647371E-04   1.4848479294E-04
  105      2.3058139563E-04  -5.6658519526E-04   1.6016976876E-03   5.6954751293E-04   3.6882550254E-04
  106      3.4562606554E-04   3.4833289797E-04  -4.3798876314E-04  -2.9243432095E-04   4.3325650183E-04
  107      3.0957101678E-04  -3.5165654987E-04   2.4628020264E-03   1.2773742622E-03   5.1080239539E-04
  108      9.3236061807E-05   7.6797429218E-05   4.7918635026E-04   1.1015742599E-04   4.2910113431E-04
  109      1.2082000796E-04  -1.0557300769E-04   1.3248844303E-04  -4.3463649468E-05  -8.9901402847E-05
  110      2.5348048756E-04   4.9822976967E-05   4.1676680121E-04   1.2051943246E-05   3.1508555914E-04
  111     -1.0006924619E-04   1.6895890315E-04   2.0115229741E-04  -1.0076799161E-04   3.3472997552E-04
  112      7.5926935338E-05  -2.9090787804E-06  -1.4107191213E-05  -2.5489755006E-05  -3.2318881551E-04
  113     -2.4522796882E-05   1.4285459328E-04   1.1312804852E-04  -1.0181975066E-04   4.3916533133E-05
  114      4.1478034742E-04  -1.0156807982E-05   1.3551701581E-04   5.5533228330E-05   1.6417669930E-06
  115      2.4213444206E-04   2.7791788754E-06   5.6809746828E-05   3.7168245937E-06   1.7205243130E-04
  116      1.8582468922E-04  -1.0352894434E-05   7.6954460008E-05   7.7446936544E-05   4.3181168177E-05
  117     -3.7233489994E-05   1.3119607947E-06  -2.5367598978E-05   6.8641935511E-06  -4.2369830367E-05
  118     -5.6967819598E-06   6.4671188155E-06   1.8670961657E-05  -9.9723681985E-06   3.6354515534E-05
  119      1.0644625250E-04   1.1476089808E-05   6.6969454010E-05  -3.2629747674E-06  -2.9775232481E-05
  120      2.7630226374E-05   8.1359838107E-06  -3.0414556058E-05   6.6709769264E-06  -1.6843571578E-05
  121      1.9360968406E-05  -3.4017113187E-06   2.3870018489E-05   2.2766451051E-06   4.9215596418E-05
  122      1.3680270095E-05   6.9375934573E-06   3.6766875741E-05  -7.7679982874E-06  -1.4366942772E-05
  123      9.3810552590E-06   5.7930787058E-06  -1.2250858221E-05   2.1235646449E-05  -3.7893172334E-06
  124      3.2767718358E-05  -9.3851301184E-06  -1.0617441489E-05   1.5234113297E-05   1.8400934893E-05
  125     -1.4642428395E-05   8.2682132402E-06  -2.9205422107E-05  -1.3494660080E-05  -4.7941699687E-05
  126      3.3234045726E-05   2.0851820244E-05  -9.8358088861E-06   2.7635981312E-06  -3.4534049789E-05
  127      1.5089170504E-04   6.7765136376E-05   1.6207125777E-04  -1.1092890873E-04   1.7615899364E-04
  128      1.7142343930E-05  -1.2185481134E-05  -3.6772903620E-05   2.0185877243E-05  -7.9190385548E-05
                   10                 11                 12                 13                 14
    0     -1.2960998283E-02   9.6305429180E-03  -3.1665066786E-02  -5.0321942967E-02  -1.8900051683E-02
    1     -6.3556204321E-02  -9.0703006656E-03  -2.7655882190E-02  -6.1245594973E-03  -3.4833606519E-03
    2     -1.0529754094E-02  -4.8067468733E-02  -1.2141093263E-02  -6.5230141950E-05   2.6451466302E-03
    3      1.8052021870E-02   1.1475282403E-02  -4.3568680032E-02  -1.0521009652E-02   1.0278429726E-02
    4     -5.8128479985E-04  -1.3408364259E-02  -1.3937817608E-02  -1.7740480851E-02  -6.1522084082E-03
    5     -7.0680686474E-03   1.5755069056E-02  -3.4874535448E-03  -1.1951373348E-02  -2.2892878662E-03
    6     -2.2028037206E-02  -9.8985624743E-03  -2.2044545687E-03   3.0246452766E-03   2.1289520128E-03
    7     -2.5624092300E-04  -1.8443837545E-03   2.0114951253E-03   2.7324784882E-03  -8.6767965134E-06
    8     -9.3792977797E-04   5.5169739149E-03   1.5411704935E-03   2.6486746596E-04   3.2693307441E-03
    9      2.9325258051E-02   4.3716877490E-04  -7.6186828613E-02  -1.1745313651E-02  -8.8300786553E-03
   10      2.6704064781E-01   9.5212956962E-02  -5.2224209371E-04  -1.2580678025E-01  -3.2072610845E-02
   11      9.5293374822E-02   1.3110413841E-01  -4.1720248036E-03  -3.1203259388E-02  -8.5462614203E-02
   12     -1.5115960905E-03  -3.3732022122E-03   4.9317166721E-01   3.0994235678E-02  -8.4887564746E-03
   13     -1.2558070146E-01  -2.9019079488E-02   3.1304314080E-02   4.0320900873E-01  -3.6903124960E-02
   14     -3.1197350800E-02  -8.4267007584E-02  -8.4779363862E-03  -3.6076879809E-02   4.6544588199E-01
   15      4.6017950155E-03   7.7415046222E-03  -9.0959842951E-02   3.8255871945E-02  -1.0955338885E-03
   16     -4.1418156215E-02  -9.2118399569E-03   1.7202706063E-02  -6.8408503838E-02   7.7398021929E-03
   17     -2.2630557349E-02  -4.2386471930E-03  -4.6162735491E-03   1.0813630995E-02  -7.7081202977E-02
   18     -6.9486466779E-03  -1.6203871859E-02  -8.0753066587E-02   8.7552508726E-03  -2.2333447360E-02
   19     -7.0910574703E-03  -3.7695975436E-02   1.0054634070E-02  -7.5830808030E-02   3.3953766154E-02
   20     -1.2707035236E-02  -2.3432080688E-02  -1.9842921167E-02   2.6634095684E-02  -1.5988402250E-01
   21     -1.3057695641E-02   1.7993835181E-03  -1.3923370898E-01  -2.9514350487E-02   4.6143469278E-02
   22     -2.7746308011E-02   9.1462474605E-03  -1.9887756085E-02  -8.1571778506E-02   1.9586142302E-02
   23     -1.0309476280E-02   8.2995358325E-03   5.0304651700E-02   2.7268679591E-02  -1.0593907142E-01
   24      6.5551271133E-03   1.5834615198E-03  -2.2874304263E-04   1.3607542416E-02   1.8197902146E-02
   25     -1.5982357628E-03  -1.1167089673E-03   5.9566122988E-03  -1.0832731585E-02  -1.0179810503E-02
   26      3.3878738602E-03   7.7092318771E-04   4.6718124318E-03  -2.8133161734E-03   1.9683616782E-03