$orca_hessian_file

$hessian
129
                  0          1          2          3          4          5
      0       0.515243   0.046653  -0.005751  -0.111014   0.084366   0.036683
      1       0.046414   0.501672   0.148888   0.069437  -0.210133  -0.066044
      2      -0.005818   0.148118   0.192905   0.034471  -0.069421  -0.072031
      3      -0.113257   0.073802   0.039389   0.311072  -0.032300  -0.061317
      4       0.086298  -0.216671  -0.074389  -0.030042   0.416029   0.095576
      5       0.038360  -0.066517  -0.071544  -0.058458   0.091742   0.121042
      6      -0.110082  -0.073168  -0.026122   0.010599   0.011413   0.002700
      7      -0.064649  -0.151344  -0.038334  -0.008914  -0.023729  -0.011506
      8      -0.023683  -0.039739  -0.068316  -0.004473  -0.012798   0.001703
      9      -0.281545   0.003471   0.014323  -0.042840   0.046440   0.021351
     10      -0.013179  -0.065068  -0.011908   0.018130  -0.000461  -0.007117
     11       0.009515  -0.010326  -0.049669   0.011494  -0.013403   0.015791
     12      -0.031630  -0.027878  -0.012275  -0.043590  -0.013769  -0.003630
     13      -0.050249  -0.005756  -0.000051  -0.010679  -0.017633  -0.011696
     14      -0.018699  -0.003629   0.002470   0.009900  -0.005967  -0.002456
     15       0.022318  -0.021469  -0.011557  -0.116743  -0.038775   0.002224
     16       0.000266  -0.057100  -0.016248  -0.025919  -0.100701   0.001671
     17      -0.001278  -0.014235  -0.001598   0.006060   0.006049  -0.066294
     18       0.000800   0.000347  -0.002405   0.000153  -0.000688   0.000804
     19       0.005880  -0.002445  -0.005021   0.000052   0.002659   0.001067
     20       0.002553  -0.001034  -0.001286   0.000735   0.001930   0.000300
     21      -0.001022   0.000950   0.000618  -0.003677  -0.001094   0.000157
     22       0.004813  -0.006284  -0.001495   0.005382   0.003048   0.001646
     23       0.000987  -0.001877  -0.000417  -0.002352  -0.000218   0.000103
     24      -0.008244   0.000791   0.000138  -0.000692  -0.028623  -0.022340
     25      -0.002420  -0.000277  -0.000386  -0.006057  -0.028917  -0.022155
     26      -0.000664   0.000341  -0.000054  -0.003491  -0.004781   0.001267
     27      -0.005985   0.002107   0.003813  -0.003910  -0.030348   0.020644
     28      -0.003366   0.000702   0.004618  -0.012086  -0.033080   0.023096
     29      -0.000284  -0.000417   0.001595   0.005166   0.006316  -0.000178
     30       0.012355  -0.002721  -0.003855  -0.002013  -0.005241  -0.001528
     31       0.004022  -0.016207  -0.013290  -0.002340  -0.000290   0.000417
     32       0.001873  -0.009366  -0.004275  -0.000971   0.000060   0.001547
     33      -0.008151   0.003906   0.003887   0.000945  -0.000003  -0.000391
     34      -0.015776   0.004457   0.004767   0.001661   0.000836   0.000098
     35      -0.007210   0.000456   0.003295   0.000519   0.000690  -0.000566
     36      -0.000929   0.000954   0.000666   0.000083  -0.000742  -0.000469
     37       0.000192  -0.000169  -0.000040   0.000250   0.000748   0.000151
     38      -0.001043   0.000505   0.000389  -0.000255  -0.000872   0.000020
     39       0.001249  -0.000187  -0.000071  -0.000022   0.000771  -0.000012
     40       0.000548   0.000022   0.000140  -0.000099   0.000255   0.000043
     41       0.003462  -0.000632  -0.001575  -0.000187   0.001341   0.000795
     42       0.000022  -0.000572  -0.000117   0.000156   0.000396   0.000434
     43      -0.000591   0.000947   0.000246   0.000226  -0.000366  -0.000668
     44      -0.000032  -0.000633  -0.001431  -0.000442  -0.000438   0.000930
     45       0.002176  -0.001599  -0.000362   0.000111   0.001226   0.000419
     46       0.001513  -0.000824  -0.000095  -0.000328   0.000794   0.000214
     47      -0.000223   0.000607   0.000213  -0.000225   0.000037  -0.000219
     48      -0.001272   0.001290   0.000473  -0.001826  -0.001393  -0.000457
     49      -0.000461   0.000325   0.000175  -0.001012  -0.000066  -0.000229
     50       0.000093  -0.000434  -0.000228   0.001305   0.000124   0.000395
     51       0.000040  -0.000208   0.000174   0.000002   0.000330  -0.000265
     52      -0.000845   0.000317   0.000391   0.000056  -0.000662  -0.000036
     53      -0.000006   0.000187  -0.000156   0.000169  -0.000240   0.000432
     54       0.000734  -0.000404  -0.000225   0.000034   0.000661  -0.000280
     55       0.000261  -0.000091  -0.000218   0.000539   0.002087   0.001625
     56       0.000111  -0.000052  -0.000345   0.000207   0.000706   0.002785
     57       0.000109   0.000314   0.000030   0.001639   0.001037   0.000743
     58      -0.002550   0.001214   0.000205   0.000848  -0.004420  -0.004878
     59      -0.001789   0.000465   0.000148   0.000529  -0.005876  -0.003862
     60      -0.000378   0.000074   0.000024   0.001393  -0.000258   0.000112
     61       0.001498  -0.000358  -0.000189  -0.000389   0.002372   0.001265
     62       0.001017   0.000049  -0.000096  -0.000418   0.002151   0.001033
     63      -0.000364   0.000081   0.000060   0.001516  -0.000384   0.000210
     64       0.001495  -0.000316  -0.000646  -0.000546   0.002131  -0.000727
     65      -0.000509   0.000347   0.000119   0.000404  -0.002505   0.000993
     66      -0.000344   0.000589   0.000315   0.001641   0.000163  -0.000316
     67      -0.001909   0.001802   0.001118  -0.000033  -0.004202   0.003759
     68       0.002008  -0.001244  -0.001813   0.000652   0.007472  -0.003480
     69       0.001134  -0.000236   0.000141  -0.000359   0.000574   0.000644
     70      -0.000280  -0.000646   0.000365   0.000871   0.002337  -0.000290
     71       0.000823   0.000894  -0.000953  -0.000971  -0.000545   0.002911
     72      -0.000968   0.000142   0.002625   0.000356   0.000339  -0.000171
     73       0.001959   0.002759  -0.005451  -0.000579  -0.001243   0.000251
     74       0.003976  -0.004752   0.006419  -0.000934  -0.001139  -0.001072
     75      -0.000982  -0.000424  -0.001537   0.000217   0.000363   0.000147
     76       0.003270  -0.001404   0.002301  -0.000437  -0.000000  -0.000255
     77      -0.000048   0.002419  -0.004454  -0.000219   0.000319   0.000523
     78      -0.001743   0.001953   0.000057   0.000557  -0.001160  -0.000748
     79      -0.002163   0.002417  -0.002868   0.000388  -0.000915   0.000182
     80       0.001913  -0.005935   0.001386  -0.000441   0.002670   0.001059
     81      -0.000061   0.001042  -0.001125  -0.000229  -0.000523   0.000144
     82       0.001602   0.000599   0.001166  -0.000457  -0.000115  -0.000335
     83      -0.002796   0.000762  -0.001549   0.000443  -0.000638  -0.000041
     84       0.002181  -0.005657   0.001663  -0.000771   0.002694   0.001260
     85      -0.000698  -0.000613   0.000494   0.000197   0.000536  -0.000149
     86      -0.001193   0.004434  -0.001486   0.000490  -0.002200  -0.000912
     87       0.000503   0.001203  -0.000357  -0.000166  -0.000421  -0.000051
     88       0.002444   0.001286   0.002029  -0.000216  -0.000860  -0.000803
     89       0.001310   0.001674   0.001823  -0.000135  -0.000857  -0.000764
     90      -0.000066   0.001159  -0.000058  -0.000021  -0.000544  -0.000426
     91       0.001084  -0.000367   0.000296  -0.000511   0.000126   0.000109
     92       0.000472  -0.000368   0.000558  -0.000104   0.000328  -0.000203
     93      -0.000022   0.000104   0.000678   0.000124   0.000180  -0.000371
     94      -0.000037  -0.000176  -0.000129  -0.000002  -0.000008   0.000136
     95      -0.000196   0.000020  -0.000279   0.000055  -0.000149   0.000125
     96      -0.000374   0.000539  -0.000236   0.000180  -0.000278  -0.000077
     97       0.000005  -0.000397  -0.000274  -0.000051   0.000162   0.000223
     98       0.000148  -0.000621  -0.000083  -0.000066   0.000275   0.000242
     99      -0.000117  -0.001093  -0.000256  -0.000003   0.000506   0.000368
    100      -0.000094   0.000060   0.000014   0.000042  -0.000033  -0.000033
    101      -0.000205   0.000578   0.000089   0.000089  -0.000270  -0.000218
    102      -0.000740   0.001476  -0.000213   0.000294  -0.000684  -0.000440
    103      -0.000198   0.001139  -0.000043   0.000108  -0.000490  -0.000290
    104       0.000104  -0.000644   0.000013   0.000018   0.000362   0.000147
    105      -0.000328  -0.000720  -0.000205  -0.000008   0.000381   0.000231
    106      -0.000678  -0.001082  -0.000930   0.000159   0.000558   0.000346
    107      -0.000792  -0.000793  -0.000557   0.000040   0.000433   0.000310
    108      -0.000569  -0.000539  -0.000079   0.000097   0.000228   0.000093
    109      -0.000210   0.000110  -0.000597   0.000002  -0.000064   0.000121
    110      -0.000470  -0.000721  -0.000555   0.000080   0.000402   0.000253
    111      -0.000548  -0.000047   0.000153   0.000144  -0.000084  -0.000100
    112       0.000410  -0.000006  -0.000082  -0.000112   0.000127   0.000076
    113      -0.000193   0.000063  -0.000040   0.000020  -0.000090  -0.000025
    114       0.000040  -0.000516  -0.000313  -0.000086   0.000164   0.000415
    115      -0.000242  -0.000142  -0.000208   0.000122  -0.000078   0.000242
    116      -0.000145  -0.000260  -0.000380  -0.000030  -0.000021   0.000186
    117       0.000040   0.000107   0.000005  -0.000027  -0.000072  -0.000037
    118      -0.000011  -0.000091   0.000033   0.000005   0.000064  -0.000006
    119       0.000067  -0.000274  -0.000032  -0.000071   0.000157   0.000106
    120       0.000007   0.000056  -0.000042  -0.000005  -0.000050   0.000028
    121      -0.000063  -0.000042  -0.000037   0.000033   0.000008   0.000019
    122       0.000031  -0.000101   0.000005  -0.000030   0.000056   0.000014
    123      -0.000020   0.000068  -0.000063  -0.000001  -0.000044   0.000009
    124      -0.000032   0.000016  -0.000074   0.000011  -0.000014   0.000033
    125       0.000065   0.000036   0.000041  -0.000027  -0.000019  -0.000015
    126       0.000056  -0.000043  -0.000018  -0.000029   0.000030   0.000033
    127      -0.000201  -0.000469  -0.000251   0.000041   0.000241   0.000151
    128       0.000095   0.000085  -0.000008  -0.000045  -0.000065   0.000017
                  6          7          8          9         10         11
      0      -0.110980  -0.064688  -0.023227  -0.272583  -0.012961   0.009631
      1      -0.072630  -0.150438  -0.039689   0.001668  -0.063556  -0.009070
      2      -0.025402  -0.038402  -0.067897   0.016603  -0.010530  -0.048067
      3       0.010600  -0.009013  -0.004430  -0.042706   0.018052   0.011475
      4       0.011364  -0.023727  -0.012738   0.046507  -0.000581  -0.013408
      5       0.002688  -0.011535   0.001717   0.021381  -0.007068   0.015755
      6       0.590219  -0.036004  -0.128947  -0.014899  -0.022028  -0.009899
      7      -0.036766   0.532293   0.266157  -0.009797  -0.000256  -0.001844
      8      -0.130912   0.266635   0.287695  -0.004124  -0.000938   0.005517
      9      -0.014941  -0.009835  -0.004125   0.447517   0.029325   0.000437
     10      -0.022059  -0.000291  -0.000983   0.031491   0.267041   0.095213
     11      -0.009880  -0.001922   0.005478  -0.001096   0.095293   0.131104
     12      -0.002205   0.002008   0.001543  -0.076440  -0.001512  -0.003373
     13       0.003027   0.002739   0.000270  -0.013465  -0.125581  -0.029019
     14       0.002122  -0.000012   0.003267  -0.008493  -0.031197  -0.084267
     15      -0.001795   0.003743   0.002285  -0.016726   0.004602   0.007742
     16       0.001499   0.003208  -0.000222  -0.001986  -0.041418  -0.009212
     17       0.001741  -0.002768   0.003162   0.005847  -0.022631  -0.004239
     18      -0.000095  -0.000243   0.000291  -0.005661  -0.006949  -0.016204
     19      -0.000521  -0.000390   0.000697  -0.020565  -0.007091  -0.037696
     20      -0.000149  -0.000226   0.000099  -0.013802  -0.012707  -0.023432
     21      -0.000134  -0.000246  -0.000169  -0.010689  -0.013058   0.001799
     22      -0.001152   0.000395  -0.000350  -0.037007  -0.027746   0.009146
     23      -0.000584   0.000117  -0.000226  -0.015557  -0.010309   0.008300
     24       0.001119  -0.000835   0.000254   0.000230   0.006555   0.001583
     25       0.000498  -0.000903   0.000072   0.000992  -0.001598  -0.001117
     26      -0.000146   0.000075  -0.000006  -0.000503   0.003388   0.000771
     27       0.000479  -0.000014  -0.000859   0.002567   0.001521   0.000214
     28       0.000173   0.000104  -0.000854   0.000733   0.001056  -0.000717
     29       0.000057   0.000320  -0.000308  -0.000388  -0.000549  -0.001022
     30      -0.170173   0.115310   0.100573  -0.003797  -0.001638  -0.000173
     31       0.125882  -0.306001  -0.195049   0.002992   0.001246   0.000172
     32       0.108553  -0.195909  -0.188664   0.002043   0.000644   0.000394
     33      -0.305660  -0.013157   0.049441  -0.000657  -0.002295  -0.000863
     34      -0.021195  -0.046580  -0.001855  -0.001879  -0.003453  -0.002109
     35       0.044383  -0.002885  -0.045384  -0.000821  -0.002039  -0.000115
     36       0.000052  -0.000113  -0.000021   0.001439  -0.000603   0.000923
     37      -0.000004   0.000042  -0.000007  -0.001330   0.001411  -0.000537
     38       0.000072   0.000029  -0.000012   0.002638   0.000835   0.002429
     39      -0.000095  -0.000053   0.000061  -0.000376  -0.000137  -0.002566
     40      -0.000011  -0.000002  -0.000059   0.000314   0.001904   0.001320
     41      -0.000320  -0.000236   0.000164  -0.005839  -0.001437  -0.007197
     42       0.000009   0.000101   0.000031   0.000884   0.001024   0.000758
     43       0.000076  -0.000090  -0.000003   0.001381   0.000490  -0.000860
     44      -0.000098   0.000062   0.000121  -0.000257   0.000259   0.002969
     45      -0.000383   0.000091  -0.000101  -0.006072  -0.004111   0.002539
     46      -0.000261   0.000033  -0.000032  -0.003965  -0.000461   0.001426
     47       0.000149  -0.000046   0.000033   0.003590   0.002320   0.000113
     48       0.000130  -0.000124  -0.000015   0.003315   0.000539  -0.000415
     49       0.000069   0.000010   0.000036   0.001032   0.001553  -0.000024
     50      -0.000020   0.000048  -0.000003  -0.001443  -0.000250   0.000027
     51      -0.000008   0.000065   0.000041   0.001651   0.001525  -0.000872
     52       0.000072   0.000010  -0.000042   0.001579   0.001107  -0.000434
     53       0.000035  -0.000039  -0.000046  -0.000257  -0.000611   0.002185
     54      -0.000061   0.000030   0.000072  -0.000601  -0.000110  -0.000428
     55      -0.000027   0.000062   0.000021  -0.000095   0.000072   0.000042
     56      -0.000001   0.000015  -0.000018   0.000072  -0.000233   0.000427
     57      -0.000029  -0.000015  -0.000038   0.000214  -0.000316  -0.000037
     58       0.000376  -0.000358   0.000016   0.001286   0.000555   0.000248
     59       0.000330  -0.000322  -0.000015   0.000503   0.000448  -0.000095
     60       0.000049   0.000048   0.000012   0.000381   0.000418   0.000182
     61      -0.000103   0.000055  -0.000012  -0.000319  -0.001732  -0.000533
     62      -0.000095   0.000040  -0.000032   0.000401  -0.002055  -0.000199
     63       0.000034  -0.000000   0.000032   0.000547   0.000361   0.000016
     64      -0.000095   0.000038   0.000011  -0.000645  -0.000217   0.000128
     65       0.000018  -0.000046  -0.000054   0.000536   0.000522   0.000582
     66      -0.000010  -0.000092   0.000002   0.000283   0.000046  -0.000113
     67       0.000208  -0.000116  -0.000226   0.001294   0.000464   0.000163
     68      -0.000151   0.000057   0.000408  -0.001011  -0.000534   0.000237
     69      -0.000136   0.000154  -0.000029  -0.000505  -0.000220   0.000236
     70       0.000019   0.000045   0.000049   0.000100  -0.000101  -0.000093
     71      -0.000051  -0.000089   0.000070  -0.000006   0.000230   0.001116
     72       0.010756   0.011287   0.007272   0.000344  -0.000221  -0.000429
     73      -0.012081  -0.012047  -0.011527  -0.000518  -0.000549   0.000396
     74      -0.009122  -0.015123   0.002597  -0.000133   0.000594  -0.000486
     75      -0.008704   0.000475   0.002722   0.000445  -0.000088  -0.000050
     76       0.022506   0.002810  -0.004669  -0.000252   0.000690   0.000266
     77       0.018091   0.000657  -0.001251  -0.000167   0.000232   0.000437
     78      -0.000023  -0.000642  -0.000833   0.000338  -0.001936   0.000693
     79       0.000203   0.000892   0.002974  -0.000088  -0.001994   0.001558
     80       0.000759   0.000504  -0.000801   0.000673   0.003972  -0.001297
     81      -0.000098  -0.000064   0.000419  -0.000776  -0.000820   0.000414
     82      -0.000179  -0.000401  -0.000371  -0.000781  -0.000371  -0.000491
     83       0.000217   0.000426   0.000696   0.000800  -0.001553   0.001125
     84       0.000842   0.000740  -0.000103   0.000349   0.003319  -0.001339
     85       0.000243   0.000098   0.000030   0.000458   0.000133   0.000344
     86      -0.000800  -0.000314  -0.000127  -0.000334  -0.002222   0.000769
     87      -0.000065  -0.000524  -0.000522  -0.000727  -0.000140   0.000289
     88       0.000093  -0.002506  -0.001185  -0.000981   0.000169  -0.000927
     89      -0.000263  -0.002105  -0.002103  -0.000784  -0.000680  -0.000737
     90      -0.000160  -0.000215  -0.000206  -0.000186  -0.000658   0.000014
     91       0.000114   0.000066   0.000285  -0.000496   0.000150  -0.000495
     92       0.000117  -0.000081   0.000173  -0.000087   0.000315  -0.000308
     93       0.000109  -0.000205  -0.000048   0.000063   0.000100  -0.000169
     94       0.000062  -0.000011   0.000041   0.000045   0.000095   0.000060
     95      -0.000044   0.000064  -0.000001   0.000099  -0.000059   0.000156
     96      -0.000164  -0.000074   0.000048   0.000084  -0.000287   0.000202
     97       0.000004   0.000177  -0.000135   0.000051   0.000157   0.000068
     98       0.000073   0.000153  -0.000009   0.000068   0.000335  -0.000049
     99       0.000001   0.000332  -0.000220   0.000276   0.000503   0.000053
    100       0.000004  -0.000021   0.000065   0.000041  -0.000016   0.000015
    101      -0.000005  -0.000137   0.000138  -0.000025  -0.000345   0.000065
    102      -0.000200  -0.000324  -0.000050   0.000025  -0.000877   0.000364
    103      -0.000232  -0.000331  -0.000009  -0.000211  -0.000605   0.000139
    104      -0.000164   0.000218  -0.000205   0.000148   0.000412  -0.000051
    105      -0.000567   0.001602   0.000570   0.000369   0.000287   0.000062
    106       0.000348  -0.000438  -0.000292   0.000433   0.000468   0.000394
    107      -0.000352   0.002463   0.001277   0.000511   0.000257   0.000129
    108       0.000077   0.000479   0.000110   0.000429   0.000067  -0.000017
    109      -0.000106   0.000132  -0.000043  -0.000090  -0.000139   0.000329
    110       0.000050   0.000417   0.000012   0.000315   0.000315   0.000182
    111       0.000169   0.000201  -0.000101   0.000335  -0.000308  -0.000075
    112      -0.000003  -0.000014  -0.000025  -0.000323   0.000272  -0.000125
    113       0.000143   0.000113  -0.000102   0.000044  -0.000178  -0.000025
    114      -0.000010   0.000136   0.000056   0.000002   0.000202   0.000080
    115       0.000003   0.000057   0.000004   0.000172   0.000056   0.000123
    116      -0.000010   0.000077   0.000077   0.000043   0.000043   0.000129
    117       0.000001  -0.000025   0.000007  -0.000042  -0.000062  -0.000016
    118       0.000006   0.000019  -0.000010   0.000036   0.000054  -0.000013
    119       0.000011   0.000067  -0.000003  -0.000030   0.000112  -0.000010
    120       0.000008  -0.000030   0.000007  -0.000017  -0.000027   0.000024
    121      -0.000003   0.000024   0.000002   0.000049   0.000022   0.000025
    122       0.000007   0.000037  -0.000008  -0.000014   0.000042  -0.000021
    123       0.000006  -0.000012   0.000021  -0.000004  -0.000042   0.000043
    124      -0.000009  -0.000011   0.000015   0.000018  -0.000011   0.000048
    125       0.000008  -0.000029  -0.000013  -0.000048  -0.000016  -0.000027
    126       0.000021  -0.000010   0.000003  -0.000035   0.000042  -0.000017
    127       0.000068   0.000162  -0.000111   0.000176   0.000196   0.000109
    128      -0.000012  -0.000037   0.000020  -0.000079  -0.000029  -0.000008
                 12         13         14         15         16         17
      0      -0.031665  -0.050322  -0.018900   0.022580  -0.000621  -0.001678
      1      -0.027656  -0.006125  -0.003483  -0.021301  -0.056498  -0.014693
      2      -0.012141  -0.000065   0.002645  -0.011553  -0.015975  -0.001468
      3      -0.043569  -0.010521   0.010278  -0.117952  -0.025898   0.005447
      4      -0.013938  -0.017740  -0.006152  -0.037295  -0.101082   0.006198
      5      -0.003487  -0.011951  -0.002289   0.001985   0.001738  -0.069229
      6      -0.002204   0.003025   0.002129  -0.001795   0.001498   0.001738
      7       0.002011   0.002732  -0.000009   0.003735   0.003208  -0.002777
      8       0.001541   0.000265   0.003269   0.002287  -0.000214   0.003157
      9      -0.076187  -0.011745  -0.008830  -0.016686  -0.002083   0.006030
     10      -0.000522  -0.125807  -0.032073   0.004442  -0.041323  -0.022737
     11      -0.004172  -0.031203  -0.085463   0.007615  -0.009231  -0.004124
     12       0.493172   0.030994  -0.008489  -0.091005   0.017737  -0.004625
     13       0.031304   0.403209  -0.036903   0.038426  -0.067594   0.011382
     14      -0.008478  -0.036077   0.465446  -0.001462   0.008635  -0.077444
     15      -0.090960   0.038256  -0.001096   0.387574  -0.024862  -0.002707
     16       0.017203  -0.068409   0.007740  -0.026709   0.483855   0.024891
     17      -0.004616   0.010814  -0.077081  -0.003633   0.025782   0.494417
     18      -0.080753   0.008755  -0.022333  -0.007553   0.009259  -0.022806
     19       0.010055  -0.075831   0.033954   0.005694  -0.006583   0.016990
     20      -0.019843   0.026634  -0.159884  -0.007552   0.004593  -0.000687
     21      -0.139234  -0.029514   0.046143  -0.020488  -0.006230   0.010350
     22      -0.019888  -0.081572   0.019586   0.006712   0.010260  -0.008182
     23       0.050305   0.027269  -0.105939   0.001955  -0.001783   0.001583
     24      -0.000229   0.013608   0.018198  -0.077141   0.019223   0.021659
     25       0.005957  -0.010833  -0.010180   0.012539  -0.106736  -0.050039
     26       0.004672  -0.002813   0.001968   0.014596  -0.054296  -0.147003
     27      -0.004844   0.011699  -0.024084  -0.071615   0.014526  -0.015089
     28       0.006836  -0.009040   0.013716   0.010093  -0.089816   0.037950
     29      -0.006399   0.005261  -0.001298  -0.006906   0.040096  -0.153228
     30       0.000375   0.000692   0.000377   0.000931   0.000211  -0.000199
     31       0.000316  -0.000536  -0.000030   0.000036  -0.000730  -0.000376
     32       0.000206  -0.000067  -0.000352   0.000040  -0.000284  -0.000287
     33       0.000054   0.000709   0.000521  -0.000320  -0.000211  -0.000141
     34      -0.000468   0.000926   0.000273  -0.000279  -0.000169   0.000126
     35      -0.000214   0.000065   0.000370  -0.000169  -0.000031  -0.000098
     36      -0.008413   0.006374   0.000043   0.001298   0.000256  -0.001552
     37       0.005233  -0.006638  -0.001555  -0.001295  -0.000201   0.000935
     38      -0.023223   0.021253  -0.001663   0.001064   0.000583  -0.005284
     39      -0.004390  -0.006954  -0.001362   0.000190  -0.001027  -0.000248
     40       0.002395   0.004434   0.002887  -0.000166   0.000100  -0.000617
     41      -0.006820  -0.023051  -0.006332   0.000075  -0.000671  -0.000101
     42       0.007721   0.003058  -0.005557  -0.000224   0.000474   0.000294
     43      -0.006287  -0.004738   0.003175  -0.000721   0.000154   0.000457
     44       0.023594   0.011014  -0.015348   0.001473   0.000003   0.000326
     45      -0.004788  -0.019785  -0.012257   0.000068  -0.000319  -0.000392
     46       0.000193  -0.008917  -0.005947   0.000052  -0.000763   0.000005
     47       0.001676   0.013437   0.005508  -0.000067  -0.000653   0.000571
     48      -0.022857   0.016865  -0.000655   0.000408  -0.003011   0.002116
     49      -0.010744   0.006895   0.000071  -0.001184  -0.001104   0.001322
     50       0.013733  -0.011088  -0.000856   0.000394   0.002577  -0.001654
     51       0.006513  -0.002200   0.024160   0.001269  -0.000290   0.000200
     52       0.003002  -0.003490   0.011185   0.000367   0.000273  -0.000583
     53      -0.004536   0.000283  -0.015198  -0.001127   0.001105  -0.000745
     54       0.000476  -0.000513   0.000911  -0.002150  -0.003596   0.003301
     55      -0.000143   0.000547   0.000356  -0.000475   0.010247  -0.017452
     56      -0.001382   0.001016  -0.000555   0.000475   0.013701  -0.021173
     57      -0.000094   0.000420  -0.000289   0.002567   0.004143   0.000454
     58      -0.000809  -0.000348  -0.000320  -0.014266  -0.012384   0.003357
     59      -0.000043  -0.000171   0.000729  -0.019068  -0.013362   0.001403
     60       0.001344  -0.000532   0.000349  -0.005659   0.001941  -0.000693
     61      -0.001334  -0.000022  -0.002216   0.018681  -0.011494   0.001294
     62      -0.001932  -0.000972  -0.003697   0.023851  -0.012267   0.000322
     63       0.000470  -0.000943  -0.000337  -0.004314   0.000902   0.000554
     64      -0.000946  -0.000022   0.002902   0.015231  -0.009064   0.001485
     65       0.000984   0.000811  -0.004812  -0.025541   0.012184  -0.003197
     66       0.000260  -0.000014   0.000552   0.000580   0.002816  -0.000667
     67      -0.001341  -0.000428  -0.000131  -0.010522  -0.010783  -0.002987
     68       0.000477   0.000135   0.000594   0.018456   0.015322   0.001744
     69       0.000282  -0.000319  -0.000391  -0.001368  -0.003241  -0.002406
     70       0.000300   0.000823  -0.000399  -0.002925   0.009545   0.013636
     71       0.000758  -0.001307  -0.000483   0.002354  -0.017236  -0.020844
     72       0.000199   0.000286   0.000087  -0.000033   0.000051  -0.000128
     73       0.000087   0.000220   0.000195   0.000288   0.000085   0.000248
     74      -0.000029  -0.000176  -0.000031   0.000312   0.000295  -0.000648
     75       0.000144   0.000120   0.000017  -0.000097  -0.000185   0.000052
     76      -0.000429  -0.000573  -0.000122   0.000190   0.000159  -0.000091
     77      -0.000347  -0.000179  -0.000118   0.000054   0.000030   0.000323
     78       0.000571   0.000858   0.000391  -0.000038   0.000268   0.000193
     79       0.000323   0.000979   0.000492   0.000102   0.000443  -0.000066
     80      -0.001062  -0.002294  -0.001279  -0.000431  -0.000917   0.000001
     81       0.000216   0.000883   0.000679   0.000388   0.000343  -0.000247
     82       0.000646   0.000167   0.001109   0.000291  -0.000154  -0.000069
     83       0.000681   0.001481   0.000308   0.000084   0.000398  -0.000075
     84      -0.000919  -0.002065  -0.000687  -0.000286  -0.000871  -0.000177
     85      -0.000210  -0.000152  -0.000352  -0.000217  -0.000236   0.000022
     86       0.000593   0.001494   0.000373   0.000247   0.000757   0.000131
     87      -0.000072   0.000133  -0.000163   0.000164   0.000229  -0.000005
     88       0.000091   0.000014   0.000334   0.000259   0.000165   0.000084
     89       0.000243   0.000282   0.000561   0.000221   0.000136   0.000039
     90       0.000260   0.000405   0.000346   0.000108   0.000206   0.000100
     91       0.000419  -0.000007   0.000477   0.000219  -0.000022  -0.000027
     92       0.000169  -0.000155   0.000139  -0.000008  -0.000294   0.000059
     93      -0.000071  -0.000124   0.000047  -0.000145  -0.000237   0.000033
     94      -0.000206  -0.000098  -0.000162  -0.000006   0.000106   0.000005
     95      -0.000139   0.000013  -0.000137  -0.000003   0.000143   0.000008
     96      -0.000041   0.000157  -0.000055  -0.000019   0.000114   0.000011
     97      -0.000040  -0.000075  -0.000100   0.000011   0.000009  -0.000048
     98      -0.000051  -0.000187  -0.000084  -0.000016  -0.000079  -0.000034
     99      -0.000151  -0.000286  -0.000194  -0.000098  -0.000148  -0.000052
    100      -0.000008   0.000016  -0.000029  -0.000015  -0.000008   0.000009
    101       0.000093   0.000200   0.000095   0.000014   0.000049   0.000035
    102       0.000228   0.000539   0.000130   0.000013   0.000178   0.000063
    103       0.000154   0.000364   0.000159   0.000065   0.000130   0.000004
    104      -0.000138  -0.000266  -0.000081  -0.000092  -0.000169  -0.000058
    105      -0.000117  -0.000184  -0.000176  -0.000112  -0.000101  -0.000010
    106      -0.000200  -0.000228  -0.000317  -0.000169  -0.000142   0.000010
    107      -0.000104  -0.000162  -0.000201  -0.000140  -0.000112  -0.000020
    108      -0.000005  -0.000008  -0.000033  -0.000102  -0.000086  -0.000011
    109      -0.000024   0.000143  -0.000084   0.000041   0.000093  -0.000017
    110      -0.000109  -0.000180  -0.000164  -0.000122  -0.000124   0.000002
    111       0.000136   0.000178   0.000134  -0.000052  -0.000026  -0.000012
    112      -0.000102  -0.000136  -0.000011   0.000025  -0.000027  -0.000004
    113       0.000083   0.000121   0.000145   0.000032   0.000025  -0.000026
    114      -0.000012  -0.000091  -0.000130   0.000029   0.000008  -0.000137
    115      -0.000212  -0.000080  -0.000250  -0.000049   0.000104   0.000024
    116      -0.000123  -0.000020  -0.000084   0.000017   0.000154  -0.000056
    117       0.000022   0.000039   0.000039   0.000026   0.000052   0.000020
    118      -0.000007  -0.000037  -0.000006  -0.000018  -0.000023   0.000005
    119       0.000022  -0.000056   0.000000   0.000013  -0.000060  -0.000045
    120      -0.000018   0.000022  -0.000025   0.000015   0.000037  -0.000010
    121      -0.000040  -0.000018  -0.000036  -0.000020  -0.000007   0.000001
    122       0.000004  -0.000026   0.000007   0.000002  -0.000011   0.000001